32
Lattice="8.09298 -0.0 4.67248388 2.69766033 7.63013421 4.67248388 -1e-08 -0.0 9.34496979" Properties=species:S:1:pos:R:3:initial_magmoms:R:1:forces:R:3:energies:R:1 chi_A=0.06 chi_B=-0.22 eta_A=2.23 eta_B=3.09 m_A=6.94 m_B=114.818 energy=-72.32615661621094 stress="-0.003795174416154623 3.303009865618378e-09 -1.5347328741199817e-08 3.303009865618378e-09 -0.0037952421698719263 -1.6751620535160328e-08 -1.5347328741199817e-08 -1.6751620535160328e-08 -0.0037951297126710415" free_energy=-72.32615661621094 pbc="T T T"
Li       9.44181191       6.67637110      16.35370099      -0.00000000      -0.00000707      -0.00001187      -0.00001877      -2.27257490
Li       1.34882759       0.95376298       2.33623787      -0.00000000       0.00001394       0.00001350       0.00001491      -2.27257514
Li       5.39532081       3.81506736       9.34496882      -0.00000000      -0.00000030      -0.00000046      -0.00000163      -2.06886101
Li       5.39531962       3.81506689       4.67248451      -0.00000000       0.00000105       0.00000009      -0.00000290      -2.06886387
Li       1.34882938       3.81506754       7.00872661      -0.00000000       0.00000459      -0.00000170       0.00000131      -2.06886315
Li       4.04648888      -0.00000003       7.00872772      -0.00000000       0.00000507      -0.00000028      -0.00000112      -2.06886244
Li       2.62639715       1.85714310       4.54905372      -0.00000000       0.00029927       0.00021124       0.00051982      -2.23108149
Li       8.16424590       5.77299388       9.22152443      -0.00000000      -0.00030897      -0.00022170       0.00055783      -2.23108149
Li       3.90395127       5.77299394      11.68120819      -0.00000000       0.00063960      -0.00022121       0.00000734      -2.23108125
Li       6.74414849       1.75634839      11.68120804      -0.00000000       0.00000580       0.00067679       0.00000877      -2.23108077
Li       6.88668843       1.85714091       7.00873008      -0.00000000      -0.00063836       0.00021985      -0.00000971      -2.23108244
Li       4.04649222       5.87378636       7.00873018      -0.00000000      -0.00000400      -0.00067973      -0.00001155      -2.23108149
Li       2.62639466       1.85714119       9.46841189      -0.00000000       0.00030835       0.00021933      -0.00055204      -2.23108053
Li       8.16424298       5.77299100      14.14088384      -0.00000000      -0.00029769      -0.00021332      -0.00051892      -2.23108268
Li       5.37108259       0.98803040       4.71444530      -0.00000000      -0.00016676       0.00026512       0.00033720      -2.17701459
Li       9.39335373       6.64210136      11.68121484      -0.00000000      -0.00037402      -0.00025808      -0.00001088      -2.17701435
Li       4.09494570       2.89556481      11.68120591      -0.00000000       0.00037709       0.00026039       0.00001256      -2.17701364
Li       8.06875108       2.89556465       9.38693293      -0.00000000      -0.00018360       0.00026366       0.00032440      -2.17701387
Li       8.06875332       2.89556858      13.97548906      -0.00000000      -0.00019001       0.00025297      -0.00032379      -2.17701459
Li       5.41955100       6.64210056       9.38693221      -0.00000000       0.00018386      -0.00025912       0.00032867      -2.17701340
Li       2.72188418       4.73456357       4.71444506      -0.00000000       0.00019636      -0.00024543       0.00033605      -2.17701387
Li       1.39729014       0.98803133       7.00872375      -0.00000000       0.00036433       0.00026422       0.00000759      -2.17701387
Li       6.69569163       4.73457076       7.00873111      -0.00000000      -0.00037256      -0.00027037      -0.00001310      -2.17701364
Li       5.37109185       0.98803540       9.30300636      -0.00000000      -0.00018749       0.00025859      -0.00033026      -2.17701411
Li       5.41955687       6.64210172      13.97548877      -0.00000000       0.00016584      -0.00026363      -0.00032499      -2.17701387
Li       2.72189164       4.73457088       9.30300598      -0.00000000       0.00018162      -0.00026475      -0.00032573      -2.17701268
In       4.04648680       2.86129784       7.00872064       0.00000000       0.00000993       0.00000861       0.00002025      -2.66191220
In       6.74415478       4.76883538      11.68121574       0.00000000      -0.00001595      -0.00000616      -0.00001773      -2.66191244
In      -0.00000056       0.00000049       0.00000050       0.00000000       0.00000184      -0.00000131      -0.00000310      -2.55222940
In      -0.00000136      -0.00000064       4.67248420       0.00000000       0.00000239       0.00000072       0.00000506      -2.55222654
In       4.04649261      -0.00000160       2.33624225       0.00000000      -0.00001082       0.00000832      -0.00000431      -2.55222845
In       1.34882917       3.81506880       2.33624418       0.00000000      -0.00000326      -0.00000421      -0.00001124      -2.55222702
4
Lattice="-2.23801617 2.23801617 4.59297823 2.23801617 -2.23801617 4.59297823 2.23801617 2.23801617 -4.59297823" Properties=species:S:1:pos:R:3:initial_magmoms:R:1:forces:R:3:energies:R:1 chi_A=0.06 chi_B=-0.22 eta_A=2.23 eta_B=3.09 m_A=6.94 m_B=114.818 energy=-10.611719131469727 stress="-0.009010078385472298 -4.905574835234461e-10 8.291134179216897e-08 -4.905574835234461e-10 -0.009010092355310917 8.873296053479862e-08 8.291134179216897e-08 8.873296053479862e-08 -0.009553016163408756" free_energy=-10.611719131469727 pbc="T T T"
Li       0.00000000       0.00000000       0.00000000      -0.00000000      -0.00000125      -0.00000119      -0.00001645      -2.52091336
In      -0.00000000       2.23801169       2.29647993      -0.00000000      -0.00000884       0.00001282       0.00004001      -2.71244001
In       2.23801169      -0.00000000       2.29647993      -0.00000000       0.00001305      -0.00000907       0.00003982      -2.71243978
In       0.00000000       0.00000000       4.59298742       0.00000000      -0.00000294      -0.00000257      -0.00006338      -2.66592669
6
Lattice="0.0 0.0 -4.67951371 -4.69327212 1e-08 0.0 2.3466355500000002 5.02984254 0.0" Properties=species:S:1:pos:R:3:initial_magmoms:R:1:forces:R:3:energies:R:1 chi_A=0.06 chi_B=-0.22 eta_A=2.23 eta_B=3.09 m_A=6.94 m_B=114.818 energy=-14.847171783447266 stress="-0.003894585883244872 -4.2081744311417424e-08 1.828676099435711e-09 -4.2081744311417424e-08 -0.0006658922065980732 9.969506109541726e-09 1.828676099435711e-09 9.969506109541726e-09 -0.004555650055408478" free_energy=-14.847171783447266 pbc="T T T"
Li      -2.34663571       2.57642116      -3.50963533       0.00000000       0.00000091       0.00038103       0.00000018      -2.33882523
Li      -0.00000080       2.45342107      -1.16987852       0.00000000       0.00000019      -0.00038044      -0.00000005      -2.33882570
Li      -0.00000073       4.13114588      -3.50963532      -0.00000000       0.00000098       0.00099191       0.00000005      -2.37451339
Li      -2.34663582       0.89869681      -1.16987828      -0.00000000      -0.00000176      -0.00099225      -0.00000013      -2.37451363
In       0.00000046       0.90326463      -3.50963534       0.00000000      -0.00000178       0.00027102       0.00000002      -2.71024776
In      -2.34663710       4.12657809      -1.16987835       0.00000000       0.00000149      -0.00027119      -0.00000008      -2.71024776
4
Lattice="0.0 3.293469 3.293469 3.293469 0.0 3.293469 3.293469 3.293469 0.0" Properties=species:S:1:pos:R:3:initial_magmoms:R:1:forces:R:3:energies:R:1 chi_A=0.06 chi_B=-0.22 eta_A=2.23 eta_B=3.09 m_A=6.94 m_B=114.818 energy=-9.424796104431152 stress="-0.007591621484607458 -1.2637283441918612e-09 -5.540872649589801e-09 -1.2637283441918612e-09 -0.007591606583446264 -3.386913149938664e-08 -5.540872649589801e-09 -3.386913149938664e-08 -0.007591616827994585" free_energy=-9.424796104431152 pbc="T T T"
Li       0.00000000       0.00000000       0.00000000      -0.00000000       0.00000744       0.00000785       0.00000749      -2.32757425
Li       3.29346900       3.29346900       3.29346900      -0.00000000       0.00000784       0.00000736       0.00000771      -2.32757425
Li       1.64673450       1.64673450       1.64673450       0.00000000       0.00000106       0.00000125       0.00000131      -2.31380844
In       4.94021009       4.94021009       4.94021009      -0.00000000      -0.00001635      -0.00001646      -0.00001650      -2.45583892
4
Lattice="-2.08073143 2.08073143 4.22807889 2.08073143 -2.08073143 4.22807889 2.08073143 2.08073143 -4.22807889" Properties=species:S:1:pos:R:3:initial_magmoms:R:1:forces:R:3:energies:R:1 chi_A=0.06 chi_B=-0.22 eta_A=2.23 eta_B=3.09 m_A=6.94 m_B=114.818 energy=-9.384867668151855 stress="-0.003206906607374549 -1.667131677152156e-08 8.790128447344614e-08 -1.667131677152156e-08 -0.003206911962479353 1.3297070999840344e-08 8.790128447344614e-08 1.3297070999840344e-08 -0.001461239531636238" free_energy=-9.384867668151855 pbc="T T T"
Li      -0.00000208       2.08073351       2.11404367       0.00000000       0.00000162      -0.00000300      -0.00001049      -2.28835750
Li       2.08073351      -0.00000208       2.11404367       0.00000000      -0.00000202       0.00000276      -0.00001028      -2.28835750
Li       0.00000000       0.00000000       4.22807889       0.00000000      -0.00000025      -0.00000002       0.00000728      -2.29109263
In       0.00000000       0.00000000       0.00000000      -0.00000000       0.00000063       0.00000026       0.00001348      -2.51705956
5
Lattice="4.27650441 -0.0070887400000000005 3.58521585 1.66857922 3.93755965 3.58521585 -0.01072201 -0.0070887300000000006 5.5805136300000004" Properties=species:S:1:pos:R:3:initial_magmoms:R:1:forces:R:3:energies:R:1 chi_A=0.06 chi_B=-0.22 eta_A=2.23 eta_B=3.09 m_A=6.94 m_B=114.818 energy=-12.673548698425293 stress="-0.0021949743386358023 3.068690421059728e-05 9.981061884900555e-05 3.068690421059728e-05 -0.002221224131062627 6.603027577511966e-05 9.981061884900555e-05 6.603027577511966e-05 -0.002026893896982074" free_energy=-12.673548698425293 pbc="T T T"
Li       3.53759158       2.33880588       7.60109183      -0.00000000       0.00011937       0.00007875       0.00026019      -2.38271880
Li       2.39677018       1.58457630       5.14985372      -0.00000000      -0.00011764      -0.00007696      -0.00026080      -2.38271666
Li       0.00000056       0.00000018       0.00000001      -0.00000000      -0.00000017       0.00000124      -0.00000097      -2.40407944
In       1.24042146       0.82007918       2.66524935       0.00000000       0.00009795       0.00006390       0.00020629      -2.75201726
In       4.69393946       3.10330281      10.08569576       0.00000000      -0.00009951      -0.00006695      -0.00020475      -2.75201702
9
Lattice="-2.37353149 -4.11063289 0.00034883 -2.37294994 4.110297 -0.00010473000000000001 0.00045908 0.00048816 -8.84316682" Properties=species:S:1:pos:R:3:initial_magmoms:R:1:forces:R:3:energies:R:1 chi_A=0.06 chi_B=-0.22 eta_A=2.23 eta_B=3.09 m_A=6.94 m_B=114.818 energy=-23.031381607055664 stress="-0.004980025812983513 3.81742647732608e-05 -2.6128083845833316e-05 3.81742647732608e-05 -0.005015405360609293 -1.3689260413229931e-05 -2.6128083845833316e-05 -1.3689260413229931e-05 -0.00181074149440974" free_energy=-23.031381607055664 pbc="T T T"
Li      -2.37295921       1.37018664      -5.50647919      -0.00000000       0.00004607       0.00004498      -0.00017321      -2.39687705
Li      -2.37306196      -1.37003295      -3.33644335      -0.00000000      -0.00005546      -0.00004429       0.00017492      -2.39687657
Li       0.00023084       0.00024492      -4.42158303       0.00000000       0.00000141      -0.00000139      -0.00000080      -2.42812467
Li      -2.37279062       1.37039768      -8.44289691       0.00000000       0.00013737       0.00007273       0.00040635      -2.40912819
Li      -2.37323348      -1.37024481      -0.40002703       0.00000000      -0.00013027      -0.00007017      -0.00040218      -2.40913081
In      -4.74625752      -0.00014661      -1.48272000       0.00000000       0.00047476       0.00024530       0.00037305      -2.78470397
In       0.00023788       0.00029740      -7.36020432       0.00000000      -0.00050736      -0.00023223      -0.00036932      -2.78470540
In      -2.37281625       1.37026121      -2.66439470       0.00000000      -0.00057045      -0.00029464      -0.00054746      -2.71091819
In      -2.37321192      -1.37010623      -6.17852579       0.00000000       0.00060391       0.00027968       0.00053870      -2.71091747
4
Lattice="4.1733115 -0.0 2.40946275 1.39110383 3.93463656 2.40946275 -0.0 -0.0 4.81892651" Properties=species:S:1:pos:R:3:initial_magmoms:R:1:forces:R:3:energies:R:1 chi_A=0.06 chi_B=-0.22 eta_A=2.23 eta_B=3.09 m_A=6.94 m_B=114.818 energy=-10.319784164428711 stress="-0.006023859139531851 2.8127955076229227e-08 -3.9718052846637875e-08 2.8127955076229227e-08 -0.006024152506142855 -2.0583652116101803e-08 -3.9718052846637875e-08 -2.0583652116101803e-08 -0.006024021189659834" free_energy=-10.319784164428711 pbc="T T T"
Li       3.47775958       2.45914785       6.02365751      -0.00000000       0.00000126       0.00000093      -0.00000214      -2.42311954
Li       2.08665575       1.47548871       3.61419450      -0.00000000      -0.00000204      -0.00000052       0.00000079      -2.42312002
In       0.69555192       0.49182957       1.20473150       0.00000000       0.00000168       0.00000155       0.00000489      -2.73677230
In       4.86886341       3.44280699       8.43312051       0.00000000      -0.00000092      -0.00000195      -0.00000356      -2.73677230
12
Lattice="0.0 5.2471161 5.2471161 5.2471161 -0.0 5.2471161 5.2471161 5.2471161 -0.0" Properties=species:S:1:pos:R:3:initial_magmoms:R:1:forces:R:3:energies:R:1 chi_A=0.06 chi_B=-0.22 eta_A=2.23 eta_B=3.09 m_A=6.94 m_B=114.818 energy=-30.072580337524414 stress="-9.531798423267901e-05 3.5285260935324914e-08 2.05388150931185e-09 3.5285260935324914e-08 -9.534772107144818e-05 3.925643365931819e-09 2.05388150931185e-09 3.925643365931819e-09 -9.532217518426478e-05" free_energy=-30.072580337524414 pbc="T T T"
Li       3.93533670       3.93533667       1.31177911      -0.00000000      -0.00000004       0.00000141      -0.00000116      -2.28556180
Li       1.31177932       1.31177955       1.31177973      -0.00000000       0.00000134       0.00000118      -0.00000102      -2.28555942
Li       3.93533650       1.31177905       3.93533680      -0.00000000      -0.00000005      -0.00000059       0.00000107      -2.28556156
Li       1.31177902       3.93533667       3.93533680      -0.00000000       0.00000059       0.00000071       0.00000101      -2.28556132
In       6.34907242       6.34907240       4.14515492      -0.00000000       0.00036230       0.00036172      -0.00035910      -2.61629152
In       4.14515591       4.14515588       4.14515595      -0.00000000      -0.00035577      -0.00035484      -0.00035824      -2.61629200
In       6.76871822       8.97263487       6.76871807      -0.00000000      -0.00036496       0.00035646      -0.00036294      -2.61629248
In       8.97263432       8.97263424       8.97263421      -0.00000000       0.00035467       0.00035517       0.00036297      -2.61629295
In       6.76871825       6.76871825       8.97263476      -0.00000000      -0.00036482      -0.00036378       0.00035817      -2.61629033
In       8.97263496       6.76871815       6.76871802      -0.00000000       0.00035707      -0.00036452      -0.00036304      -2.61629248
In       6.34907229       4.14515510       6.34907247      -0.00000000       0.00036329      -0.00035550       0.00036053      -2.61629152
In       4.14515530       6.34907239       6.34907237      -0.00000000      -0.00035360       0.00036254       0.00036171      -2.61629272
4
Lattice="4.4928506 0.0 0.0 -0.0 4.4928506 0.0 0.0 0.0 4.49284856" Properties=species:S:1:pos:R:3:initial_magmoms:R:1:forces:R:3:energies:R:1 chi_A=0.06 chi_B=-0.22 eta_A=2.23 eta_B=3.09 m_A=6.94 m_B=114.818 energy=-10.637048721313477 stress="-0.012845040298998356 -4.8513117967274866e-09 1.856625408969137e-09 -4.8513117967274866e-09 -0.012845050543546677 -3.0386031468765395e-09 1.856625408969137e-09 -3.0386031468765395e-09 -0.012845123186707497" free_energy=-10.637048721313477 pbc="T T T"
Li       2.24642530       2.24642530       2.24642428      -0.00000000       0.00000001       0.00000006      -0.00000015      -2.54033065
In       2.24642530       0.00000000       0.00000000      -0.00000000       0.00000007       0.00000001       0.00000025      -2.69890618
In       0.00000000       2.24642530       0.00000000      -0.00000000      -0.00000003       0.00000010       0.00000010      -2.69890618
In       0.00000000       0.00000000       2.24642428      -0.00000000      -0.00000004      -0.00000019      -0.00000021      -2.69890594
